
#(C) 2020 by FIZ Karlsruhe - Leibniz Institute for Information Infrastructure.  All rights reserved.
data_280396-ICSD
_database_code_ICSD 280396
_audit_creation_date 2002-04-01
_chemical_name_common 'Ditantalum pentaoxide - B'
_chemical_formula_structural 'Ta2 O5'
_chemical_formula_sum 'O5 Ta2'
_chemical_name_structure_type Sb2O5
_exptl_crystal_density_diffrn 8.83
_citation_title

;
Structures and phase transitions of B-Ta2 O5 and Z-Ta2 O5: two high-pressure
forms of Ta2 O5
;
loop_
_citation_id
_citation_journal_full
_citation_year
_citation_journal_volume
_citation_page_first
_citation_page_last
_citation_journal_id_ASTM
primary 'Acta Crystallographica, Section B: Structural Science' 2000 56 659 665
ASBSDK
loop_
_citation_author_citation_id
_citation_author_name
primary 'Zibrov, I.P.'
primary 'Filonenko, V.F.'
primary 'Sundberg, M.'
primary 'Werner, P.E.'
_cell_length_a 12.7853(4)
_cell_length_b 4.8537(1)
_cell_length_c 5.5276(2)
_cell_angle_alpha 90.
_cell_angle_beta 104.264(2)
_cell_angle_gamma 90.
_cell_volume 332.45
_cell_formula_units_Z 4
_space_group_name_H-M_alt 'C 1 2/c 1'
_space_group_IT_number 15
loop_
_space_group_symop_id
_space_group_symop_operation_xyz
1 'x, -y, z+1/2'
2 '-x, -y, -z'
3 '-x, y, -z+1/2'
4 'x, y, z'
5 'x+1/2, -y+1/2, z+1/2'
6 '-x+1/2, -y+1/2, -z'
7 '-x+1/2, y+1/2, -z+1/2'
8 'x+1/2, y+1/2, z'
loop_
_atom_type_symbol
_atom_type_oxidation_number
Ta5+ 5
O2- -2
loop_
_atom_site_label
_atom_site_type_symbol
_atom_site_symmetry_multiplicity
_atom_site_Wyckoff_symbol
_atom_site_fract_x
_atom_site_fract_y
_atom_site_fract_z
_atom_site_B_iso_or_equiv
_atom_site_occupancy
Ta1 Ta5+ 8 f 0.1395(1) 0.2470(15) 0.2623(2) 1.10(3) 1.
O1 O2- 4 e 0 0.102(4) 0.25 1.8(2) 1.
O2 O2- 8 f 0.389(2) 0.051(2) 0.990(4) 1.8(2) 1.
O3 O2- 8 f 0.299(1) 0.431(3) 0.355(3) 1.8(2) 1.
#End of TTdata_280396-ICSD