
#(C) 2020 by FIZ Karlsruhe - Leibniz Institute for Information Infrastructure.  All rights reserved.
data_9112-ICSD
_database_code_ICSD 9112
_audit_creation_date 1980-01-01
_audit_update_record 2007-08-01
_chemical_name_common 'Tantalum oxide'
_chemical_formula_structural 'Ta2 O5'
_chemical_formula_sum 'O5 Ta2'
_exptl_crystal_density_diffrn 8.31
_citation_title

;
Structural systematics in the binary system Ta2 O5 W O3. V. The structure of
the low-temperature form of tantalum oxide L-Ta2 O5
;
loop_
_citation_id
_citation_journal_full
_citation_year
_citation_journal_volume
_citation_page_first
_citation_page_last
_citation_journal_id_ASTM
primary

;
Acta Crystallographica, Section B: Structural Crystallography and Crystal
Chemistry
; 1971 27 1037 1044 ACBCAR
loop_
_citation_author_citation_id
_citation_author_name
primary 'Stephenson, N.C.'
primary 'Roth, R.S.'
_cell_length_a 6.198(5)
_cell_length_b 40.290(33)
_cell_length_c 3.888(5)
_cell_angle_alpha 90.
_cell_angle_beta 90.
_cell_angle_gamma 90.
_cell_volume 970.9
_cell_formula_units_Z 11
_space_group_name_H-M_alt 'P 2 m m'
_space_group_IT_number 25
loop_
_space_group_symop_id
_space_group_symop_operation_xyz
1 'x, y, -z'
2 'x, -y, z'
3 'x, -y, -z'
4 'x, y, z'
loop_
_atom_type_symbol
_atom_type_oxidation_number
Ta5+ 5
O2- -2
loop_
_atom_site_label
_atom_site_type_symbol
_atom_site_symmetry_multiplicity
_atom_site_Wyckoff_symbol
_atom_site_fract_x
_atom_site_fract_y
_atom_site_fract_z
_atom_site_B_iso_or_equiv
_atom_site_occupancy
Ta1 Ta5+ 1 a 0 0 0 . 1.
Ta2 Ta5+ 1 c 0.6784(15) 0.5 0 . 1.
Ta3 Ta5+ 2 e 0.0655(12) 0.08622(16) 0 . 1.
Ta4 Ta5+ 2 e 0.0558(9) 0.18372(14) 0 . 1.
Ta5 Ta5+ 2 e 0.0674(12) 0.27489(18) 0 . 1.
Ta6 Ta5+ 2 e 0.1610(11) 0.36266(20) 0 . 1.
Ta7 Ta5+ 2 e 0.1094(12) 0.45071(29) 0 . 1.
Ta8 Ta5+ 2 e 0.5917(13) 0.41238(23) 0 . 1.
Ta9 Ta5+ 2 e 0.5915(9) 0.31715(15) 0 . 1.
Ta10 Ta5+ 2 e 0.6180(13) 0.22243(21) 0 . 1.
Ta11 Ta5+ 2 e 0.5220(9) 0.13771(14) 0 . 1.
Ta12 Ta5+ 2 e 0.5488(11) 0.04626(16) 0 . 1.
O1 O2- 1 a 0.648(8) 0 0 -.4(6) 1.
O2 O2- 2 e 0.251(11) 0.0290(11) 0 0.8(1) 1.
O3 O2- 2 e 0.882(16) 0.0457(33) 0 2.10(16) 1.
O4 O2- 2 e 0.402(11) 0.0923(24) 0 0.7(9) 1.
O5 O2- 2 e 0.798(36) 0.1090(82) 0 0.10(31) 0.25
O6 O2- 2 e 0.189(13) 0.1354(26) 0 1.10(11) 1.
O7 O2- 2 e 0.398(11) 0.1886(24) 0 0.80(11) 1.
O8 O2- 2 e 0.978(9) 0.2265(19) 0 0.7(1) 1.
O9 O2- 2 e 0.400(11) 0.2668(21) 0 0.7(1) 1.
O10 O2- 2 e 0.732(9) 0.2775(18) 0 0.2(7) 1.
O11 O2- 2 e 0.283(12) 0.3152(28) 0 1.10(11) 1.
O12 O2- 2 e 0.466(14) 0.3655(23) 0 1.10(11) 1.
O13 O2- 2 e 0.275(11) 0.4076(23) 0 0.4(1) 1.
O14 O2- 2 e 0.398(6) 0.4681(14) 0 -.2(5) 1.
O15 O2- 2 e 0.773(8) 0.4540(15) 0 -.3(6) 1.
O16 O2- 1 c 0.021(14) 0.5 0 0.60(16) 1.
O17 O2- 1 b 0.028 0 0.5 0.70(16) 1.
O18 O2- 1 d 0.65 0.5 0.5 0.70(16) 1.
O19 O2- 2 f 0.09 0.083 0.5 0.70(16) 1.
O20 O2- 2 f 0.09 0.1775 0.5 0.70(16) 1.
O21 O2- 2 f 0.03 0.278 0.5 0.70(16) 1.
O22 O2- 2 f 0.16 0.361 0.5 0.70(16) 1.
O23 O2- 2 f 0.1 0.45 0.5 0.70(16) 1.
O24 O2- 2 f 0.56 0.048 0.5 0.70(16) 1.
O25 O2- 2 f 0.512 0.139 0.5 0.70(16) 1.
O26 O2- 2 f 0.62 0.223 0.5 0.70(16) 1.
O27 O2- 2 f 0.58 0.3115 0.5 0.70(16) 1.
O28 O2- 2 f 0.582 0.4133 0.5 0.70(16) 1.
O29 O2- 2 e 0.86 0.13 0 0.70(16) 0.75
O30 O2- 2 e 0.77 0.1725 0 0.70(16) 0.25
O31 O2- 2 e 0.9 0.3285 0 0.70(16) 0.25
O32 O2- 2 e 0.83 0.3675 0 0.70(16) 0.75
O33 O2- 2 e 0.87 0.389 0 0.70(16) 0.25
#End of TTdata_9112-ICSD