
#(C) 2020 by FIZ Karlsruhe - Leibniz Institute for Information Infrastructure.  All rights reserved.
data_62199-ICSD
_database_code_ICSD 62199
_audit_creation_date 1988-07-15
_chemical_name_common 'Tin dioxide'
_chemical_formula_structural 'Sn O2'
_chemical_formula_sum 'O2 Sn1'
_exptl_crystal_density_diffrn 7.
_citation_title
'RHEED-Untersuchungen einer Grenzschichtstruktur von SnO2 auf Quarz'
loop_
_citation_id
_citation_journal_full
_citation_year
_citation_journal_volume
_citation_page_first
_citation_page_last
_citation_journal_id_ASTM
primary 'Acta Crystallographica, Section B: Structural Science' 1984 40 359 363
ASBSDK
loop_
_citation_author_citation_id
_citation_author_name
primary 'Mueller, E.'
_cell_length_a 4.737(1)
_cell_length_b 5.708(1)
_cell_length_c 15.865(5)
_cell_angle_alpha 90.
_cell_angle_beta 90.
_cell_angle_gamma 90.
_cell_volume 428.97
_cell_formula_units_Z 12
_space_group_name_H-M_alt 'P b c n'
_space_group_IT_number 60
loop_
_space_group_symop_id
_space_group_symop_operation_xyz
1 'x, -y, z+1/2'
2 '-x+1/2, y+1/2, z'
3 'x+1/2, y+1/2, -z+1/2'
4 '-x, -y, -z'
5 '-x, y, -z+1/2'
6 'x+1/2, -y+1/2, -z'
7 '-x+1/2, -y+1/2, z+1/2'
8 'x, y, z'
loop_
_atom_type_symbol
_atom_type_oxidation_number
Sn4+ 4
O2- -2
loop_
_atom_site_label
_atom_site_type_symbol
_atom_site_symmetry_multiplicity
_atom_site_Wyckoff_symbol
_atom_site_fract_x
_atom_site_fract_y
_atom_site_fract_z
_atom_site_B_iso_or_equiv
_atom_site_occupancy
Sn1 Sn4+ 4 c 0 0 0.25 0.1 1.
Sn2 Sn4+ 8 d 0 0.3125(5) 0.0833(10) 0.1 1.
O1 O2- 8 d 0.272(1) 0.0805(10) 0.024(2) 1.6 1.
O2 O2- 8 d 0.755(1) 0.060(1) 0.143(2) 1.6 1.
O3 O2- 8 d 0.2575(10) 0.2435(10) 0.188(2) 1.6 1.
#End of TTdata_62199-ICSD