
#(C) 2020 by FIZ Karlsruhe - Leibniz Institute for Information Infrastructure.  All rights reserved.
data_759737-ICSD
_database_code_ICSD 759737
_audit_creation_date 2020-02-01
_chemical_name_common 'Tin dioxide'
_chemical_formula_structural 'Sn O2'
_chemical_formula_sum 'O2 Sn1'
_chemical_name_structure_type CaCl2
_chemical_name_mineral Cassiterite
_exptl_crystal_density_diffrn 7.01
_diffrn_ambient_temperature 293.
_diffrn_ambient_pressure 100.
_citation_title

;
Low-pressure ferroelastic phase transition in rutile-type AX$_2$ minerals:
cassiterite (SnO$_2$), pyrolusite (MnO$_2$) and sellaite (MgF$_2$)
;
loop_
_citation_id
_citation_journal_full
_citation_year
_citation_journal_volume
_citation_page_first
_citation_page_last
_citation_journal_id_ASTM
primary 'Physics and Chemistry of Minerals' 2019 46 987 1002 PCMIDU
loop_
_citation_author_citation_id
_citation_author_name
primary 'Curetti, Nadia'
primary 'Merli, Marcello'
primary 'Capella, Silvana'
primary 'Benna, Piera'
primary 'Pavese, Alessandro'
_cell_length_a 4.7363(6)
_cell_length_b 4.7363(6)
_cell_length_c 3.1826(5)
_cell_angle_alpha 90.
_cell_angle_beta 90.
_cell_angle_gamma 90.
_cell_volume 71.39
_cell_formula_units_Z 2
_space_group_name_H-M_alt 'P n n m'
_space_group_IT_number 58
loop_
_space_group_symop_id
_space_group_symop_operation_xyz
1 'x+1/2, -y+1/2, z+1/2'
2 '-x+1/2, y+1/2, z+1/2'
3 'x, y, -z'
4 '-x, -y, -z'
5 '-x+1/2, y+1/2, -z+1/2'
6 'x+1/2, -y+1/2, -z+1/2'
7 '-x, -y, z'
8 'x, y, z'
loop_
_atom_type_symbol
_atom_type_oxidation_number
Sn4+ 4
O2- -2
loop_
_atom_site_label
_atom_site_type_symbol
_atom_site_symmetry_multiplicity
_atom_site_Wyckoff_symbol
_atom_site_fract_x
_atom_site_fract_y
_atom_site_fract_z
_atom_site_U_iso_or_equiv
_atom_site_occupancy
Sn1 Sn4+ 2 a 0. 0. 0. 0.0085(6) 1
O1 O2- 4 g 0.3058(6) 0.3049(7) 0. 0.0109(11) 1
loop_
_atom_site_aniso_label
_atom_site_aniso_type_symbol
_atom_site_aniso_U_11
_atom_site_aniso_U_22
_atom_site_aniso_U_33
_atom_site_aniso_U_12
_atom_site_aniso_U_13
_atom_site_aniso_U_23
Sn1 Sn4+ 0.0082(8) 0.0082(13) 0.0090(7) -0.00034(8) 0. 0.
#End of TTdata_759737-ICSD