
#(C) 2020 by FIZ Karlsruhe - Leibniz Institute for Information Infrastructure.  All rights reserved.
data_424729-ICSD
_database_code_ICSD 424729
_audit_creation_date 2013-02-01
_chemical_name_common 'Tin monoxide'
_chemical_formula_structural 'Sn O'
_chemical_formula_sum 'O1 Sn1'
_exptl_crystal_density_diffrn 5.63
_diffrn_ambient_temperature 295.
_citation_title 'Crystal structure and electronic structure of red Sn O'
loop_
_citation_id
_citation_journal_full
_citation_year
_citation_journal_volume
_citation_page_first
_citation_page_last
_citation_journal_id_ASTM
primary 'Zeitschrift fuer Anorganische und Allgemeine Chemie (1950) (DE)' 2012
638 1970 1975 ZAACAB
loop_
_citation_author_citation_id
_citation_author_name
primary 'Koehler, J.'
primary 'Tong Jianwei'
primary 'Dinnebier, R.'
primary 'Simon, A.'
_cell_length_a 5.0045(3)
_cell_length_b 5.7457(3)
_cell_length_c 11.0485(5)
_cell_angle_alpha 90
_cell_angle_beta 90
_cell_angle_gamma 90
_cell_volume 317.69
_cell_formula_units_Z 8
_space_group_name_H-M_alt 'C m c 21'
_space_group_IT_number 36
loop_
_space_group_symop_id
_space_group_symop_operation_xyz
1 'x, -y, z+1/2'
2 '-x, -y, z+1/2'
3 '-x, y, z'
4 'x, y, z'
5 'x+1/2, -y+1/2, z+1/2'
6 '-x+1/2, -y+1/2, z+1/2'
7 '-x+1/2, y+1/2, z'
8 'x+1/2, y+1/2, z'
loop_
_atom_type_symbol
_atom_type_oxidation_number
Sn2+ 2
O2- -2
loop_
_atom_site_label
_atom_site_type_symbol
_atom_site_symmetry_multiplicity
_atom_site_Wyckoff_symbol
_atom_site_fract_x
_atom_site_fract_y
_atom_site_fract_z
_atom_site_B_iso_or_equiv
_atom_site_occupancy
Sn1 Sn2+ 4 a 0 0 0 0.545727 1
Sn2 Sn2+ 4 a 0 0.41054(64) 0.22826(57) 0.545727 1
O1 O2- 4 a 0 0.3496(21) 0.0314(14) 1.545727 1
O2 O2- 4 a 0 0.0567(20) 0.1988(11) 1.545727 1
#End of TTdata_424729-ICSD