
#(C) 2022 by FIZ Karlsruhe - Leibniz Institute for Information Infrastructure.  All rights reserved.
data_203202-ICSD
_database_code_ICSD 203202
_audit_creation_date 1996-10-14
_audit_update_record 2008-08-01
_chemical_name_common 'Aluminium iron(III) oxide'
_chemical_formula_structural 'Al Fe O3'
_chemical_formula_sum 'Al1 Fe1 O3'
_chemical_name_structure_type AlFeO3#FeGaO3
_exptl_crystal_density_diffrn 4.41
_diffrn_ambient_temperature 298.
_citation_title

;
Crystal and magnetic structure of piezoelectric, ferrimagnetic and
magnetoelectric aluminium iron oxide Fe Al O3 from neutron powder diffraction
;
loop_
_citation_id
_citation_journal_full
_citation_year
_citation_journal_volume
_citation_page_first
_citation_page_last
_citation_journal_id_ASTM
primary 'Acta Crystallographica, Section B: Structural Science' 1996 52 217 222
ASBSDK
loop_
_citation_author_citation_id
_citation_author_name
primary 'Bouree, F.'
primary 'Baudour, J.-L.'
primary 'El Badraoui, E.'
primary 'Musso, J.'
primary 'Laurent, C.'
primary 'Rousset, A.'
_cell_length_a 4.9839(1)
_cell_length_b 8.5544(2)
_cell_length_c 9.2413(2)
_cell_angle_alpha 90.
_cell_angle_beta 90.
_cell_angle_gamma 90.
_cell_volume 394.
_cell_formula_units_Z 8
_space_group_name_H-M_alt 'P n a 21'
_space_group_IT_number 33
loop_
_space_group_symop_id
_space_group_symop_operation_xyz
1 'x+1/2, -y+1/2, z'
2 '-x+1/2, y+1/2, z+1/2'
3 '-x, -y, z+1/2'
4 'x, y, z'
loop_
_atom_type_symbol
_atom_type_oxidation_number
Fe3+ 3
Al3+ 3
O2- -2
loop_
_atom_site_label
_atom_site_type_symbol
_atom_site_symmetry_multiplicity
_atom_site_Wyckoff_symbol
_atom_site_fract_x
_atom_site_fract_y
_atom_site_fract_z
_atom_site_B_iso_or_equiv
_atom_site_occupancy
Fe1 Fe3+ 4 a 0.1850(7) 0.1518(4) 0.5827(5) 0.20(6) 1.
Fe2 Fe3+ 4 a 0.6731(7) 0.0334(3) 0.7982(5) 0.38(8) 1.
Al1 Al3+ 4 a 0.1729(12) 0.1528(8) 0 0.56(10) 1.
Al2 Al3+ 4 a 0.8155(10) 0.1600(6) 0.3035(7) 0.60(9) 1.
O1 O2- 4 a 0.9822(9) 0.3230(5) 0.4211(7) 0.58(2) 1.
O2 O2- 4 a 0.5101(9) 0.4911(6) 0.4294(8) 0.58(2) 1.
O3 O2- 4 a 0.6581(12) 1.0019(5) 0.2005(7) 0.58(2) 1.
O4 O2- 4 a 0.1555(13) 0.1629(5) 0.1948(6) 0.58(2) 1.
O5 O2- 4 a 0.8451(12) 0.1683(6) 0.6727(7) 0.58(2) 1.
O6 O2- 4 a 0.5089(12) 0.1727(6) 0.9409(7) 0.58(2) 1.
#End of TTdata_203202-ICSD