
#(C) 2022 by FIZ Karlsruhe - Leibniz Institute for Information Infrastructure.  All rights reserved.
data_430557-ICSD
_database_code_ICSD 430557
_audit_creation_date 2018-08-01
_audit_update_record 2020-02-01
_chemical_name_common 'Iron(III) oxide'
_chemical_formula_structural 'Fe2 O3'
_chemical_formula_sum 'Fe2 O3'
_exptl_crystal_density_diffrn 7.51
_diffrn_ambient_temperature 296.
_diffrn_ambient_pressure 73800000.
_citation_title
'Structural complexity of simple Fe2O3 at high pressures and temperatures'
loop_
_citation_id
_citation_journal_full
_citation_year
_citation_journal_volume
_citation_page_first
_citation_page_last
_citation_journal_id_ASTM
primary 'Nature Communications' 2016 7 1 6 NCAOBW
loop_
_citation_author_citation_id
_citation_author_name
primary 'Bykova, E.'
primary 'Dubrovinsky, L.'
primary 'Dubrovinskaia, N.'
primary 'Bykov, M.'
primary 'McCammon, C.'
primary 'Ovsyannikov, S.V.'
primary 'Liermann, H.P.'
primary 'Kupenko, I.'
primary 'Chumakov, A.I.'
primary 'Rueffer, R.'
primary 'Hanfland, M.'
primary 'Prakapenka, V.'
_cell_length_a 6.524(9)
_cell_length_b 4.702(3)
_cell_length_c 4.603(7)
_cell_angle_alpha 90
_cell_angle_beta 90
_cell_angle_gamma 90
_cell_volume 141.2
_cell_formula_units_Z 4
_space_group_name_H-M_alt 'A b a 2'
_space_group_IT_number 41
loop_
_space_group_symop_id
_space_group_symop_operation_xyz
1 'x+1/2, -y+1/2, z'
2 '-x+1/2, y+1/2, z'
3 '-x, -y, z'
4 'x, y, z'
5 'x+1/2, -y, z+1/2'
6 '-x+1/2, y, z+1/2'
7 '-x, -y+1/2, z+1/2'
8 'x, y+1/2, z+1/2'
loop_
_atom_type_symbol
_atom_type_oxidation_number
Fe3+ 3
O2- -2
loop_
_atom_site_label
_atom_site_type_symbol
_atom_site_symmetry_multiplicity
_atom_site_Wyckoff_symbol
_atom_site_fract_x
_atom_site_fract_y
_atom_site_fract_z
_atom_site_U_iso_or_equiv
_atom_site_occupancy
Fe1 Fe3+ 8 b 0.3906(15) 0.2905(15) 0.406(8) 0.026(3) 1
O1 O2- 8 b 0.355(7) 0.150(6) 0.049(5) 0.002(8) 1
O2 O2- 4 a 0.5 0.5 0.127(15) 0.018(14) 1
#End of TTdata_430557-ICSD