
#(C) 2022 by FIZ Karlsruhe - Leibniz Institute for Information Infrastructure.  All rights reserved.
data_51122-ICSD
_database_code_ICSD 51122
_audit_creation_date 2001-07-16
_chemical_name_common 'Iron(III) oxide - epsilon'
_chemical_formula_structural 'Fe2 O3'
_chemical_formula_sum 'Fe2 O3'
_chemical_name_structure_type AlFeO3#FeGaO3
_exptl_crystal_density_diffrn 5.02
_citation_title 'Structural and magnetic characterization of epsilon-Fe2 O3'
loop_
_citation_id
_citation_journal_full
_citation_year
_citation_journal_volume
_citation_page_first
_citation_page_last
_citation_journal_id_ASTM
primary 'Journal of Solid State Chemistry' 1998 139 93 104 JSSCBI
loop_
_citation_author_citation_id
_citation_author_name
primary 'Tronc, E.'
primary 'Chaneac, C.'
primary 'Jolivet, J.P.'
_cell_length_a 5.095(1)
_cell_length_b 8.789(2)
_cell_length_c 9.437(3)
_cell_angle_alpha 90.
_cell_angle_beta 90.
_cell_angle_gamma 90.
_cell_volume 422.59
_cell_formula_units_Z 8
_space_group_name_H-M_alt 'P n a 21'
_space_group_IT_number 33
loop_
_space_group_symop_id
_space_group_symop_operation_xyz
1 'x+1/2, -y+1/2, z'
2 '-x+1/2, y+1/2, z+1/2'
3 '-x, -y, z+1/2'
4 'x, y, z'
loop_
_atom_type_symbol
_atom_type_oxidation_number
O2- -2
Fe3+ 3
loop_
_atom_site_label
_atom_site_type_symbol
_atom_site_symmetry_multiplicity
_atom_site_Wyckoff_symbol
_atom_site_fract_x
_atom_site_fract_y
_atom_site_fract_z
_atom_site_B_iso_or_equiv
_atom_site_occupancy
O1 O2- 4 a 0 0 0 . 1.
O2 O2- 4 a 0 0.333 0 . 1.
O3 O2- 4 a 0 0.667 0 . 1.
O4 O2- 4 a 0.167 0.5 0.25 . 1.
O5 O2- 4 a 0.167 0.833 0.25 . 1.
O6 O2- 4 a 0.167 0.167 0.25 . 1.
Fe1 Fe3+ 4 a 0.333 0.333 0.125 . 1.
Fe2 Fe3+ 4 a 0.333 0 0.375 . 1.
Fe3 Fe3+ 4 a 0.333 0.667 0.375 . 1.
Fe4 Fe3+ 4 a 0.167 0.833 0.0625 . 1.
#End of TTdata_51122-ICSD