
#(C) 2020 by FIZ Karlsruhe - Leibniz Institute for Information Infrastructure.  All rights reserved.
data_250052-ICSD
_database_code_ICSD 250052
_audit_creation_date 2003-10-01
_chemical_name_common 'Tantalum oxide'
_chemical_formula_structural 'Ta2 O5'
_chemical_formula_sum 'O5 Ta2'
_exptl_crystal_density_diffrn 8.24
_citation_title

;
Structure of high-pressure hydroxide Ta2 O5 2/3(H2 O) and a derivative
metastable oxide Ta2 O5
;
loop_
_citation_id
_citation_journal_full
_citation_year
_citation_journal_volume
_citation_page_first
_citation_page_last
_citation_journal_id_ASTM
primary 'Zhurnal Neorganicheskoi Khimii' 2003 48 543 550 ZNOKAQ
loop_
_citation_author_citation_id
_citation_author_name
primary 'Zibrov, I.P.'
primary 'Filonenko, V.P.'
primary 'Drobot, D.V.'
primary 'Nikishina, E.E.'
_cell_length_a 10.45462(28)
_cell_length_b 7.34852(20)
_cell_length_c 6.95755(17)
_cell_angle_alpha 90
_cell_angle_beta 90
_cell_angle_gamma 90
_cell_volume 534.52
_cell_formula_units_Z 6
_space_group_name_H-M_alt 'I b a m'
_space_group_IT_number 72
loop_
_space_group_symop_id
_space_group_symop_operation_xyz
1 '-x, y, z+1/2'
2 'x, -y, z+1/2'
3 'x, y, -z'
4 '-x, -y, -z'
5 'x, -y, -z+1/2'
6 '-x, y, -z+1/2'
7 '-x, -y, z'
8 'x, y, z'
9 '-x+1/2, y+1/2, z'
10 'x+1/2, -y+1/2, z'
11 'x+1/2, y+1/2, -z+1/2'
12 '-x+1/2, -y+1/2, -z+1/2'
13 'x+1/2, -y+1/2, -z'
14 '-x+1/2, y+1/2, -z'
15 '-x+1/2, -y+1/2, z+1/2'
16 'x+1/2, y+1/2, z+1/2'
loop_
_atom_type_symbol
_atom_type_oxidation_number
Ta5+ 5
O2- -2
loop_
_atom_site_label
_atom_site_type_symbol
_atom_site_symmetry_multiplicity
_atom_site_Wyckoff_symbol
_atom_site_fract_x
_atom_site_fract_y
_atom_site_fract_z
_atom_site_U_iso_or_equiv
_atom_site_occupancy
Ta1 Ta5+ 8 j 0.23560(14) 0.23834(27) 0. 0.0345(5) 1.
Ta2 Ta5+ 4 a 0. 0. 0.25 0.0154(5) 1.
O1 O2- 16 k 0.1393(10) 0.1814(16) 0.2884(19) 0.047(3) 0.9
O2 O2- 8 j 0.1322(13) 0.4582(25) 0. 0.047(3) 1.
O3 O2- 8 j 0.0508(17) 0.1204(21) 0. 0.047(3) 0.95
#End of TTdata_250052-ICSD