
#(C) 2020 by FIZ Karlsruhe - Leibniz Institute for Information Infrastructure.  All rights reserved.
data_15206-ICSD
_database_code_ICSD 15206
_audit_creation_date 1980-01-01
_audit_update_record 2007-04-01
_chemical_name_common 'Tin(IV) ditantalate'
_chemical_formula_structural 'Sn (Ta2 O7)'
_chemical_formula_sum 'O7 Sn1 Ta2'
_chemical_name_mineral Thoreaulite
_exptl_crystal_density_diffrn 8.51
_citation_title

;
The crystal structure of Sn Ta2 O7, thoreaulite, an example of tin in
five-fold coordination
;
loop_
_citation_id
_citation_journal_full
_citation_year
_citation_journal_volume
_citation_page_first
_citation_page_last
_citation_journal_id_ASTM
primary 'American Mineralogist' 1970 55 367 377 AMMIAY
loop_
_citation_author_citation_id
_citation_author_name
primary 'Mumme, W.G.'
_cell_length_a 17.140(5)
_cell_length_b 4.865(2)
_cell_length_c 5.548(2)
_cell_angle_alpha 90.
_cell_angle_beta 91.00(8)
_cell_angle_gamma 90.
_cell_volume 462.56
_cell_formula_units_Z 4
_space_group_name_H-M_alt 'C 1 2/c 1'
_space_group_IT_number 15
loop_
_space_group_symop_id
_space_group_symop_operation_xyz
1 'x, -y, z+1/2'
2 '-x, -y, -z'
3 '-x, y, -z+1/2'
4 'x, y, z'
5 'x+1/2, -y+1/2, z+1/2'
6 '-x+1/2, -y+1/2, -z'
7 '-x+1/2, y+1/2, -z+1/2'
8 'x+1/2, y+1/2, z'
loop_
_atom_type_symbol
_atom_type_oxidation_number
Sn4+ 4
Ta5+ 5
O2- -2
loop_
_atom_site_label
_atom_site_type_symbol
_atom_site_symmetry_multiplicity
_atom_site_Wyckoff_symbol
_atom_site_fract_x
_atom_site_fract_y
_atom_site_fract_z
_atom_site_B_iso_or_equiv
_atom_site_occupancy
Sn1 Sn4+ 4 e 0 0.2300(58) 0.25 1.2(2) 1.
Ta1 Ta5+ 8 f 0.1698(4) 0.2403(38) 0.6675(11) 0.9(1) 1.
O1 O2- 4 e 0 0.392(50) 0.75 3.60(24) 1.
O2 O2- 8 f 0.075(9) 0.097(29) 0.599(25) 2.60(22) 1.
O3 O2- 8 f 0.124(10) 0.567(35) 0.427(27) 3.60(24) 1.
O4 O2- 8 f 0.217(8) 0.077(30) 0.342(23) 3.50(19) 1.
#End of TTdata_15206-ICSD