
#(C) 2020 by FIZ Karlsruhe - Leibniz Institute for Information Infrastructure.  All rights reserved.
data_54078-ICSD
_database_code_ICSD 54078
_audit_creation_date 1999-06-02
_audit_update_record 2007-04-01
_chemical_name_common 'Tin ditantalate'
_chemical_formula_structural 'Sn (Ta2 O6)'
_chemical_formula_sum 'O6 Sn1 Ta2'
_exptl_crystal_density_diffrn 8.28
_citation_title 'Crystal structure of thoreaulite, Sn Ta2 O6'
loop_
_citation_id
_citation_journal_full
_citation_year
_citation_journal_volume
_citation_page_first
_citation_page_last
_citation_journal_id_ASTM
primary 'Doklady Akademii Nauk SSSR' 1975 223 1115 1118 DANKAS
loop_
_citation_author_citation_id
_citation_author_name
primary 'Maksimova, N.V.'
primary 'Ilyukhin, V.V.'
primary 'Belov, N.V.'
_cell_length_a 17.11299
_cell_length_b 4.872
_cell_length_c 5.548
_cell_angle_alpha 90.
_cell_angle_beta 90.59
_cell_angle_gamma 90.
_cell_volume 462.54
_cell_formula_units_Z 4
_space_group_name_H-M_alt 'C 1 c 1'
_space_group_IT_number 9
loop_
_space_group_symop_id
_space_group_symop_operation_xyz
1 'x, -y, z+1/2'
2 'x, y, z'
3 'x+1/2, -y+1/2, z+1/2'
4 'x+1/2, y+1/2, z'
loop_
_atom_type_symbol
_atom_type_oxidation_number
Sn2+ 2
Ta5+ 5
O2- -2
loop_
_atom_site_label
_atom_site_type_symbol
_atom_site_symmetry_multiplicity
_atom_site_Wyckoff_symbol
_atom_site_fract_x
_atom_site_fract_y
_atom_site_fract_z
_atom_site_B_iso_or_equiv
_atom_site_occupancy
Sn1 Sn2+ 4 a 0.0028 0.2295 0.2678 0.69 1.
Ta1 Ta5+ 4 a 0.1693 0.2455 0.6743 0.65 1.
Ta2 Ta5+ 4 a 0.3297 0.2548 0.339 0.66 1.
O1 O2- 4 a 0.0725 0.0914 0.6033 0.79 1.
O2 O2- 4 a 0.4289 0.4233 0.4107 0.62 1.
O3 O2- 4 a 0.1411 0.4706 0.9218 0.69 1.
O4 O2- 4 a 0.3573 0.0484 0.0619 0.54 1.
O5 O2- 4 a 0.2196 0.0567 0.349 0.53 1.
O6 O2- 4 a 0.2817 0.4297 0.6399 0.59 1.
#End of TTdata_54078-ICSD